    2    2    1    1
  0.5240839E+02  0.2460000E-09  0.2460000E-09  0.2000000E-08  0.5000000E-15
  1.000000000000000E-004
  CAR 
 unknown system                          
      8     60     96
 
  0.0000000E+00  0.0000000E+00  0.0000000E+00  0.1666667E-01
    1      -22.295381   1.000000
    2      -10.388536   1.000000
    3       -5.749428   1.000000
    4       -5.749403   1.000000
    5        0.522825   0.000000
    6        1.306648   0.000000
    7        1.597686   0.000000
    8        2.521508   0.000000
    9        2.998716   0.000000
   10        4.663859   0.000000
   11        5.294014   0.000000
   12        5.645435   0.000000
   13        5.645438   0.000000
   14        7.623824   0.000000
   15        8.417035   0.000000
   16        8.782973   0.000000
   17        9.942456   0.000000
   18       11.361877   0.000000
   19       12.368471   0.000000
   20       15.849254   0.000000
   21       17.116229   0.000000
   22       19.864081   0.000000
   23       20.992911   0.000000
   24       22.641177   0.000000
   25       25.566986   0.000000
   26       25.566998   0.000000
   27       26.395280   0.000000
   28       28.924549   0.000000
   29       28.994602   0.000000
   30       28.994612   0.000000
   31       30.315032   0.000000
   32       32.631195   0.000000
   33       32.631222   0.000000
   34       33.143534   0.000000
   35       33.143549   0.000000
   36       33.647690   0.000000
   37       33.858110   0.000000
   38       34.188257   0.000000
   39       34.203987   0.000000
   40       34.633008   0.000000
   41       34.633051   0.000000
   42       34.647602   0.000000
   43       34.672443   0.000000
   44       34.672620   0.000000
   45       34.730466   0.000000
   46       34.732491   0.000000
   47       34.824973   0.000000
   48       34.826023   0.000000
   49       34.855231   0.000000
   50       35.172284   0.000000
   51       35.284783   0.000000
   52       35.847416   0.000000
   53       35.847600   0.000000
   54       35.847605   0.000000
   55       35.847630   0.000000
   56       35.943321   0.000000
   57       35.952810   0.000000
   58       35.953584   0.000000
   59       36.074229   0.000000
   60       36.109178   0.000000
   61       36.110831   0.000000
   62       36.404331   0.000000
   63       36.437464   0.000000
   64       37.281739   0.000000
   65       37.963636   0.000000
   66       37.963741   0.000000
   67       38.052823   0.000000
   68       38.053705   0.000000
   69       38.091071   0.000000
   70       38.091170   0.000000
   71       38.407125   0.000000
   72       38.424857   0.000000
   73       38.426534   0.000000
   74       38.426941   0.000000
   75       38.855638   0.000000
   76       40.109655   0.000000
   77       40.938613   0.000000
   78       40.939865   0.000000
   79       40.961871   0.000000
   80       40.980564   0.000000
   81       40.980600   0.000000
   82       41.195289   0.000000
   83       41.195442   0.000000
   84       41.539134   0.000000
   85       41.604496   0.000000
   86       41.605452   0.000000
   87       42.063400   0.000000
   88       42.904936   0.000000
   89       43.731343   0.000000
   90       43.762534   0.000000
   91       44.387527   0.000000
   92       44.388390   0.000000
   93       44.849220   0.000000
   94       44.849321   0.000000
   95       45.103506   0.000000
   96       45.103618   0.000000
 
  0.2631579E-01  0.0000000E+00  0.0000000E+00  0.1666667E-01
    1      -22.278928   1.000000
    2      -10.368863   1.000000
    3       -5.817710   1.000000
    4       -5.785679   1.000000
    5        0.545139   0.000000
    6        1.329278   0.000000
    7        1.620561   0.000000
    8        2.544179   0.000000
    9        3.021332   0.000000
   10        4.686324   0.000000
   11        5.314912   0.000000
   12        5.657405   0.000000
   13        5.717683   0.000000
   14        7.645912   0.000000
   15        8.439810   0.000000
   16        8.724737   0.000000
   17        9.971007   0.000000
   18       11.383263   0.000000
   19       12.390990   0.000000
   20       15.868871   0.000000
   21       17.138598   0.000000
   22       19.918584   0.000000
   23       21.004679   0.000000
   24       22.662974   0.000000
   25       25.386021   0.000000
   26       25.398771   0.000000
   27       26.329736   0.000000
   28       28.825225   0.000000
   29       28.945773   0.000000
   30       29.215371   0.000000
   31       30.820442   0.000000
   32       31.486306   0.000000
   33       32.025094   0.000000
   34       32.774803   0.000000
   35       32.843663   0.000000
   36       32.981728   0.000000
   37       33.558624   0.000000
   38       33.763474   0.000000
   39       33.851858   0.000000
   40       33.877350   0.000000
   41       33.886303   0.000000
   42       34.022482   0.000000
   43       34.070235   0.000000
   44       34.596463   0.000000
   45       34.624623   0.000000
   46       34.893320   0.000000
   47       34.975772   0.000000
   48       35.061270   0.000000
   49       35.107484   0.000000
   50       35.486271   0.000000
   51       35.596353   0.000000
   52       35.631353   0.000000
   53       35.643856   0.000000
   54       35.686842   0.000000
   55       35.990874   0.000000
   56       36.133760   0.000000
   57       36.439655   0.000000
   58       36.468221   0.000000
   59       36.497728   0.000000
   60       36.752912   0.000000
   61       36.783863   0.000000
   62       36.851526   0.000000
   63       37.091912   0.000000
   64       37.177403   0.000000
   65       37.366992   0.000000
   66       37.427401   0.000000
   67       37.453296   0.000000
   68       37.702968   0.000000
   69       37.948352   0.000000
   70       38.664554   0.000000
   71       38.882700   0.000000
   72       39.054715   0.000000
   73       39.149930   0.000000
   74       39.420363   0.000000
   75       39.744179   0.000000
   76       39.832976   0.000000
   77       39.838039   0.000000
   78       40.142751   0.000000
   79       40.299547   0.000000
   80       40.547612   0.000000
   81       40.852573   0.000000
   82       41.499364   0.000000
   83       41.808387   0.000000
   84       42.240164   0.000000
   85       42.302695   0.000000
   86       42.357951   0.000000
   87       42.784736   0.000000
   88       43.108904   0.000000
   89       43.450693   0.000000
   90       43.516590   0.000000
   91       43.772373   0.000000
   92       43.824693   0.000000
   93       44.455794   0.000000
   94       44.478300   0.000000
   95       44.651073   0.000000
   96       45.403897   0.000000
 
  0.5263158E-01  0.0000000E+00  0.0000000E+00  0.1666667E-01
    1      -22.229595   1.000000
    2      -10.309891   1.000000
    3       -6.018196   1.000000
    4       -5.891331   1.000000
    5        0.612087   0.000000
    6        1.397155   0.000000
    7        1.689188   0.000000
    8        2.612182   0.000000
    9        3.089185   0.000000
   10        4.753699   0.000000
   11        5.377079   0.000000
   12        5.688724   0.000000
   13        5.931096   0.000000
   14        7.712123   0.000000
   15        8.508049   0.000000
   16        8.552034   0.000000
   17       10.058901   0.000000
   18       11.447309   0.000000
   19       12.458475   0.000000
   20       15.927271   0.000000
   21       17.205522   0.000000
   22       20.078228   0.000000
   23       21.035148   0.000000
   24       22.728528   0.000000
   25       24.837632   0.000000
   26       24.942622   0.000000
   27       26.321744   0.000000
   28       28.678203   0.000000
   29       29.009381   0.000000
   30       29.774712   0.000000
   31       29.971542   0.000000
   32       31.259828   0.000000
   33       31.268467   0.000000
   34       31.307670   0.000000
   35       31.807557   0.000000
   36       32.071808   0.000000
   37       32.397350   0.000000
   38       32.624250   0.000000
   39       32.966470   0.000000
   40       33.049539   0.000000
   41       33.076036   0.000000
   42       33.098358   0.000000
   43       33.989201   0.000000
   44       34.235668   0.000000
   45       34.332171   0.000000
   46       34.446735   0.000000
   47       34.519389   0.000000
   48       34.654256   0.000000
   49       34.702386   0.000000
   50       35.327439   0.000000
   51       35.568107   0.000000
   52       36.010740   0.000000
   53       36.022989   0.000000
   54       36.371394   0.000000
   55       36.385436   0.000000
   56       36.470958   0.000000
   57       36.535694   0.000000
   58       36.545774   0.000000
   59       36.691353   0.000000
   60       36.717540   0.000000
   61       37.186346   0.000000
   62       37.487494   0.000000
   63       37.662793   0.000000
   64       37.713364   0.000000
   65       37.820414   0.000000
   66       37.897740   0.000000
   67       38.211095   0.000000
   68       38.291377   0.000000
   69       38.293986   0.000000
   70       39.056885   0.000000
   71       39.362884   0.000000
   72       39.393492   0.000000
   73       39.597357   0.000000
   74       39.685051   0.000000
   75       39.793248   0.000000
   76       39.882600   0.000000
   77       39.979831   0.000000
   78       40.159364   0.000000
   79       40.266691   0.000000
   80       41.389574   0.000000
   81       41.534461   0.000000
   82       41.579534   0.000000
   83       41.818551   0.000000
   84       42.413733   0.000000
   85       42.650250   0.000000
   86       42.742627   0.000000
   87       43.130012   0.000000
   88       43.165343   0.000000
   89       43.247088   0.000000
   90       43.726024   0.000000
   91       43.759525   0.000000
   92       43.851965   0.000000
   93       44.006893   0.000000
   94       44.777961   0.000000
   95       44.844378   0.000000
   96       45.934672   0.000000
 
  0.7894737E-01  0.0000000E+00  0.0000000E+00  0.1666667E-01
    1      -22.147437   1.000000
    2      -10.211769   1.000000
    3       -6.338773   1.000000
    4       -6.057682   1.000000
    5        0.723682   0.000000
    6        1.510250   0.000000
    7        1.803571   0.000000
    8        2.725492   0.000000
    9        3.202289   0.000000
   10        4.865926   0.000000
   11        5.477214   0.000000
   12        5.730037   0.000000
   13        6.276296   0.000000
   14        7.822213   0.000000
   15        8.271866   0.000000
   16        8.621492   0.000000
   17       10.211360   0.000000
   18       11.553721   0.000000
   19       12.570741   0.000000
   20       16.023100   0.000000
   21       17.316522   0.000000
   22       20.330994   0.000000
   23       21.065795   0.000000
   24       22.838385   0.000000
   25       24.048006   0.000000
   26       24.384422   0.000000
   27       26.438731   0.000000
   28       28.458320   0.000000
   29       28.654935   0.000000
   30       29.116217   0.000000
   31       29.689893   0.000000
   32       29.706558   0.000000
   33       30.506047   0.000000
   34       30.524146   0.000000
   35       30.878349   0.000000
   36       30.978740   0.000000
   37       31.435191   0.000000
   38       32.179841   0.000000
   39       32.293820   0.000000
   40       32.325420   0.000000
   41       32.370510   0.000000
   42       32.816207   0.000000
   43       33.001812   0.000000
   44       33.213080   0.000000
   45       33.500920   0.000000
   46       33.597525   0.000000
   47       33.600535   0.000000
   48       33.761248   0.000000
   49       35.296991   0.000000
   50       35.473806   0.000000
   51       35.531036   0.000000
   52       35.725379   0.000000
   53       35.846740   0.000000
   54       35.879605   0.000000
   55       35.987367   0.000000
   56       36.140435   0.000000
   57       36.540099   0.000000
   58       36.792261   0.000000
   59       37.415709   0.000000
   60       37.518290   0.000000
   61       37.541571   0.000000
   62       37.554565   0.000000
   63       38.198254   0.000000
   64       38.270800   0.000000
   65       38.621979   0.000000
   66       38.681920   0.000000
   67       38.723195   0.000000
   68       38.850052   0.000000
   69       38.872045   0.000000
   70       39.066526   0.000000
   71       39.407895   0.000000
   72       39.936924   0.000000
   73       40.097145   0.000000
   74       40.105745   0.000000
   75       40.175287   0.000000
   76       40.735700   0.000000
   77       40.755228   0.000000
   78       41.078576   0.000000
   79       41.250161   0.000000
   80       41.267403   0.000000
   81       41.336992   0.000000
   82       42.009426   0.000000
   83       42.356908   0.000000
   84       42.821443   0.000000
   85       42.865100   0.000000
   86       42.914761   0.000000
   87       43.497698   0.000000
   88       43.519159   0.000000
   89       43.595298   0.000000
   90       43.818456   0.000000
   91       44.121920   0.000000
   92       44.247700   0.000000
   93       44.387611   0.000000
   94       44.846234   0.000000
   95       45.115683   0.000000
   96       45.992719   0.000000
 
  0.1052632E+00  0.0000000E+00  0.0000000E+00  0.1666667E-01
    1      -22.032537   1.000000
    2      -10.074748   1.000000
    3       -6.762450   1.000000
    4       -6.272552   1.000000
    5        0.879930   0.000000
    6        1.668505   0.000000
    7        1.963711   0.000000
    8        2.884060   0.000000
    9        3.360641   0.000000
   10        5.022887   0.000000
   11        5.597056   0.000000
   12        5.785072   0.000000
   13        6.740266   0.000000
   14        7.889591   0.000000
   15        7.980642   0.000000
   16        8.779734   0.000000
   17       10.432998   0.000000
   18       11.702031   0.000000
   19       12.727531   0.000000
   20       16.153808   0.000000
   21       17.470966   0.000000
   22       20.655314   0.000000
   23       21.046134   0.000000
   24       22.993589   0.000000
   25       23.265284   0.000000
   26       23.793664   0.000000
   27       26.596635   0.000000
   28       26.984568   0.000000
   29       28.116299   0.000000
   30       28.137618   0.000000
   31       28.748617   0.000000
   32       29.264620   0.000000
   33       29.386963   0.000000
   34       29.459128   0.000000
   35       29.828119   0.000000
   36       30.729589   0.000000
   37       31.159184   0.000000
   38       31.441106   0.000000
   39       31.583308   0.000000
   40       31.598099   0.000000
   41       31.699989   0.000000
   42       31.747156   0.000000
   43       31.836881   0.000000
   44       32.677001   0.000000
   45       32.795516   0.000000
   46       32.946178   0.000000
   47       33.072141   0.000000
   48       33.798891   0.000000
   49       34.423798   0.000000
   50       34.693648   0.000000
   51       34.924415   0.000000
   52       35.160431   0.000000
   53       35.237971   0.000000
   54       35.379741   0.000000
   55       36.239738   0.000000
   56       36.293564   0.000000
   57       36.590109   0.000000
   58       37.303936   0.000000
   59       37.530391   0.000000
   60       37.924185   0.000000
   61       38.221700   0.000000
   62       38.361924   0.000000
   63       38.486957   0.000000
   64       38.547052   0.000000
   65       38.584070   0.000000
   66       38.634062   0.000000
   67       38.727225   0.000000
   68       38.822487   0.000000
   69       39.635197   0.000000
   70       39.686826   0.000000
   71       39.840583   0.000000
   72       39.934861   0.000000
   73       40.214501   0.000000
   74       41.072953   0.000000
   75       41.594174   0.000000
   76       41.641237   0.000000
   77       41.794343   0.000000
   78       41.914221   0.000000
   79       41.983053   0.000000
   80       42.031250   0.000000
   81       42.077070   0.000000
   82       42.350475   0.000000
   83       42.497711   0.000000
   84       42.774839   0.000000
   85       43.074358   0.000000
   86       43.219716   0.000000
   87       43.482001   0.000000
   88       43.844513   0.000000
   89       43.969658   0.000000
   90       44.412717   0.000000
   91       44.681153   0.000000
   92       45.026899   0.000000
   93       45.243650   0.000000
   94       45.297308   0.000000
   95       45.708272   0.000000
   96       45.967108   0.000000
 
  0.1315789E+00  0.0000000E+00  0.0000000E+00  0.1666667E-01
    1      -21.885020   1.000000
    2       -9.899205   1.000000
    3       -7.270419   1.000000
    4       -6.522571   1.000000
    5        1.080807   0.000000
    6        1.871827   0.000000
    7        2.169609   0.000000
    8        3.087800   0.000000
    9        3.564202   0.000000
   10        5.224324   0.000000
   11        5.666065   0.000000
   12        5.912803   0.000000
   13        7.308072   0.000000
   14        7.427031   0.000000
   15        8.175808   0.000000
   16        8.982346   0.000000
   17       10.723450   0.000000
   18       11.891539   0.000000
   19       12.928563   0.000000
   20       16.314837   0.000000
   21       17.668170   0.000000
   22       20.858271   0.000000
   23       21.013907   0.000000
   24       22.688595   0.000000
   25       23.195454   0.000000
   26       23.207623   0.000000
   27       25.571823   0.000000
   28       26.431548   0.000000
   29       26.590330   0.000000
   30       26.947783   0.000000
   31       27.965176   0.000000
   32       27.980654   0.000000
   33       28.800622   0.000000
   34       29.173871   0.000000
   35       29.453227   0.000000
   36       29.987531   0.000000
   37       30.121265   0.000000
   38       30.352543   0.000000
   39       30.859261   0.000000
   40       30.918402   0.000000
   41       30.970222   0.000000
   42       31.049767   0.000000
   43       31.938785   0.000000
   44       32.133710   0.000000
   45       32.161122   0.000000
   46       32.419473   0.000000
   47       32.753809   0.000000
   48       33.097341   0.000000
   49       33.274482   0.000000
   50       33.873173   0.000000
   51       34.267175   0.000000
   52       34.543549   0.000000
   53       34.756963   0.000000
   54       35.067018   0.000000
   55       36.409558   0.000000
   56       36.561881   0.000000
   57       36.981256   0.000000
   58       37.262372   0.000000
   59       37.367493   0.000000
   60       37.574157   0.000000
   61       37.614901   0.000000
   62       37.729069   0.000000
   63       37.802986   0.000000
   64       38.603373   0.000000
   65       39.547860   0.000000
   66       39.619432   0.000000
   67       39.632679   0.000000
   68       39.669043   0.000000
   69       40.375067   0.000000
   70       40.711195   0.000000
   71       40.814611   0.000000
   72       40.881217   0.000000
   73       40.946106   0.000000
   74       41.041200   0.000000
   75       41.190325   0.000000
   76       41.575187   0.000000
   77       41.597318   0.000000
   78       41.774359   0.000000
   79       42.366251   0.000000
   80       42.681699   0.000000
   81       42.747251   0.000000
   82       43.204658   0.000000
   83       43.205662   0.000000
   84       43.422273   0.000000
   85       43.888910   0.000000
   86       44.107065   0.000000
   87       44.192790   0.000000
   88       44.870555   0.000000
   89       44.883891   0.000000
   90       44.914420   0.000000
   91       45.464144   0.000000
   92       45.728345   0.000000
   93       45.842652   0.000000
   94       46.101646   0.000000
   95       46.389558   0.000000
   96       46.665780   0.000000
 
  0.1578947E+00  0.0000000E+00  0.0000000E+00  0.1666667E-01
    1      -21.705050   1.000000
    2       -9.685655   1.000000
    3       -7.844310   1.000000
    4       -6.794814   1.000000
    5        1.326265   0.000000
    6        2.120054   0.000000
    7        2.421260   0.000000
    8        3.336549   0.000000
    9        3.812862   0.000000
   10        5.469467   0.000000
   11        5.657737   0.000000
   12        6.135439   0.000000
   13        6.888125   0.000000
   14        7.964798   0.000000
   15        8.417276   0.000000
   16        9.229018   0.000000
   17       11.076054   0.000000
   18       12.121201   0.000000
   19       13.173548   0.000000
   20       16.497676   0.000000
   21       17.907402   0.000000
   22       20.398861   0.000000
   23       21.332860   0.000000
   24       22.448624   0.000000
   25       22.643785   0.000000
   26       23.439576   0.000000
   27       24.267981   0.000000
   28       25.117579   0.000000
   29       25.142869   0.000000
   30       26.227609   0.000000
   31       26.522749   0.000000
   32       27.245231   0.000000
   33       28.562457   0.000000
   34       28.735074   0.000000
   35       28.776823   0.000000
   36       28.852260   0.000000
   37       29.537913   0.000000
   38       29.736504   0.000000
   39       30.279712   0.000000
   40       30.299204   0.000000
   41       30.353811   0.000000
   42       30.555875   0.000000
   43       31.484055   0.000000
   44       31.516562   0.000000
   45       31.701657   0.000000
   46       31.722711   0.000000
   47       31.806701   0.000000
   48       31.962825   0.000000
   49       33.328134   0.000000
   50       33.569437   0.000000
   51       33.652158   0.000000
   52       34.163461   0.000000
   53       34.185424   0.000000
   54       35.029409   0.000000
   55       35.513215   0.000000
   56       35.675599   0.000000
   57       36.632103   0.000000
   58       36.651205   0.000000
   59       37.026880   0.000000
   60       37.131696   0.000000
   61       37.282943   0.000000
   62       38.518070   0.000000
   63       38.543046   0.000000
   64       39.214425   0.000000
   65       39.778040   0.000000
   66       40.416062   0.000000
   67       40.491302   0.000000
   68       40.696908   0.000000
   69       40.709932   0.000000
   70       40.738402   0.000000
   71       40.799866   0.000000
   72       40.807496   0.000000
   73       40.994437   0.000000
   74       41.128812   0.000000
   75       41.780641   0.000000
   76       41.800833   0.000000
   77       42.057237   0.000000
   78       42.081587   0.000000
   79       42.577385   0.000000
   80       43.280591   0.000000
   81       43.535436   0.000000
   82       43.874841   0.000000
   83       44.124562   0.000000
   84       44.300854   0.000000
   85       44.677631   0.000000
   86       44.756314   0.000000
   87       44.909744   0.000000
   88       45.662785   0.000000
   89       45.667058   0.000000
   90       45.873804   0.000000
   91       45.984039   0.000000
   92       46.157108   0.000000
   93       46.206509   0.000000
   94       46.234260   0.000000
   95       46.902498   0.000000
   96       46.960676   0.000000
 
  0.1842105E+00  0.0000000E+00  0.0000000E+00  0.1666667E-01
    1      -21.492864   1.000000
    2       -9.434797   1.000000
    3       -8.467638   1.000000
    4       -7.077838   1.000000
    5        1.616214   0.000000
    6        2.412878   0.000000
    7        2.718653   0.000000
    8        3.629931   0.000000
    9        4.106353   0.000000
   10        5.608091   0.000000
   11        5.752665   0.000000
   12        6.293941   0.000000
   13        6.418251   0.000000
   14        8.696170   0.000000
   15        8.701962   0.000000
   16        9.519589   0.000000
   17       11.477230   0.000000
   18       12.389330   0.000000
   19       13.462158   0.000000
   20       16.684695   0.000000
   21       18.187712   0.000000
   22       19.782377   0.000000
   23       21.401387   0.000000
   24       22.111077   0.000000
   25       22.409012   0.000000
   26       23.152822   0.000000
   27       23.676328   0.000000
   28       23.806194   0.000000
   29       23.827090   0.000000
   30       24.983808   0.000000
   31       25.156545   0.000000
   32       26.748584   0.000000
   33       27.379659   0.000000
   34       27.988110   0.000000
   35       27.994267   0.000000
   36       28.720340   0.000000
   37       28.996614   0.000000
   38       29.719243   0.000000
   39       29.725741   0.000000
   40       29.768394   0.000000
   41       29.992389   0.000000
   42       30.097544   0.000000
   43       30.481806   0.000000
   44       30.532641   0.000000
   45       30.942213   0.000000
   46       30.944330   0.000000
   47       31.296453   0.000000
   48       31.445065   0.000000
   49       33.080864   0.000000
   50       33.141015   0.000000
   51       33.258461   0.000000
   52       33.594867   0.000000
   53       34.132293   0.000000
   54       34.357239   0.000000
   55       34.803871   0.000000
   56       35.178884   0.000000
   57       36.079580   0.000000
   58       36.524002   0.000000
   59       36.720535   0.000000
   60       36.806974   0.000000
   61       36.909324   0.000000
   62       38.518056   0.000000
   63       38.783554   0.000000
   64       39.394880   0.000000
   65       39.666178   0.000000
   66       39.918377   0.000000
   67       40.353173   0.000000
   68       40.416359   0.000000
   69       40.629650   0.000000
   70       40.879681   0.000000
   71       41.815674   0.000000
   72       41.881143   0.000000
   73       41.883892   0.000000
   74       41.972438   0.000000
   75       42.500755   0.000000
   76       42.686764   0.000000
   77       42.755763   0.000000
   78       43.204744   0.000000
   79       43.425290   0.000000
   80       43.717252   0.000000
   81       43.769926   0.000000
   82       43.906295   0.000000
   83       44.516593   0.000000
   84       44.898021   0.000000
   85       45.022266   0.000000
   86       45.022889   0.000000
   87       45.092263   0.000000
   88       45.525407   0.000000
   89       45.561292   0.000000
   90       45.737802   0.000000
   91       45.890957   0.000000
   92       46.557793   0.000000
   93       47.432277   0.000000
   94       47.693278   0.000000
   95       48.615548   0.000000
   96       48.832949   0.000000
 
  0.2105263E+00  0.0000000E+00  0.0000000E+00  0.1666667E-01
    1      -21.248669   1.000000
    2       -9.147554   1.000000
    3       -9.126218   1.000000
    4       -7.362008   1.000000
    5        1.950523   0.000000
    6        2.749609   0.000000
    7        3.061766   0.000000
    8        3.966743   0.000000
    9        4.443929   0.000000
   10        5.534160   0.000000
   11        5.616294   0.000000
   12        6.116171   0.000000
   13        6.750466   0.000000
   14        9.029231   0.000000
   15        9.489316   0.000000
   16        9.853990   0.000000
   17       11.908482   0.000000
   18       12.693338   0.000000
   19       13.793993   0.000000
   20       16.836206   0.000000
   21       18.507504   0.000000
   22       19.178462   0.000000
   23       20.813062   0.000000
   24       21.614455   0.000000
   25       22.087110   0.000000
   26       22.172797   0.000000
   27       22.786696   0.000000
   28       22.828159   0.000000
   29       23.837213   0.000000
   30       23.851725   0.000000
   31       24.225716   0.000000
   32       25.716146   0.000000
   33       26.091333   0.000000
   34       27.469529   0.000000
   35       27.540290   0.000000
   36       28.449406   0.000000
   37       28.642444   0.000000
   38       29.124663   0.000000
   39       29.198029   0.000000
   40       29.198035   0.000000
   41       29.333145   0.000000
   42       29.430960   0.000000
   43       29.755049   0.000000
   44       30.307842   0.000000
   45       30.417118   0.000000
   46       30.427354   0.000000
   47       30.785832   0.000000
   48       31.195139   0.000000
   49       32.553610   0.000000
   50       32.671409   0.000000
   51       32.890949   0.000000
   52       32.896296   0.000000
   53       33.130949   0.000000
   54       33.242577   0.000000
   55       35.090913   0.000000
   56       35.468892   0.000000
   57       35.550287   0.000000
   58       36.228297   0.000000
   59       36.415382   0.000000
   60       36.652446   0.000000
   61       37.174823   0.000000
   62       37.462292   0.000000
   63       37.624405   0.000000
   64       39.235576   0.000000
   65       39.477367   0.000000
   66       39.857376   0.000000
   67       40.166162   0.000000
   68       40.272632   0.000000
   69       41.107238   0.000000
   70       41.592246   0.000000
   71       42.263494   0.000000
   72       42.794104   0.000000
   73       42.964040   0.000000
   74       43.121206   0.000000
   75       43.173992   0.000000
   76       43.252327   0.000000
   77       43.347840   0.000000
   78       43.425703   0.000000
   79       43.847194   0.000000
   80       44.202689   0.000000
   81       44.316559   0.000000
   82       44.325670   0.000000
   83       44.585476   0.000000
   84       44.658666   0.000000
   85       44.889920   0.000000
   86       45.191772   0.000000
   87       45.326606   0.000000
   88       45.828265   0.000000
   89       46.610790   0.000000
   90       46.685725   0.000000
   91       46.713574   0.000000
   92       47.136112   0.000000
   93       48.181304   0.000000
   94       48.900505   0.000000
   95       49.417112   0.000000
   96       49.472994   0.000000
 
  0.2368421E+00  0.0000000E+00  0.0000000E+00  0.1666667E-01
    1      -20.972833   1.000000
    2       -9.808207   1.000000
    3       -8.825162   1.000000
    4       -7.639478   1.000000
    5        2.328998   0.000000
    6        3.127971   0.000000
    7        3.450557   0.000000
    8        4.337443   0.000000
    9        4.822412   0.000000
   10        4.951627   0.000000
   11        5.448427   0.000000
   12        6.486346   0.000000
   13        7.129294   0.000000
   14        9.398219   0.000000
   15       10.232130   0.000000
   16       10.331367   0.000000
   17       12.345045   0.000000
   18       13.028574   0.000000
   19       14.168454   0.000000
   20       16.863047   0.000000